65
Lattice="11.45512985522207 0.0 0.0 0.0 9.92043345827187 0.0 0.0 0.0 27.014805770653954" Properties=species:S:1:pos:R:3:tags:I:1:forces:R:3 energy=-218.98143346932488 free_energy=-218.98143346932488 stress="0.006448843739699352 4.409352506614751e-18 4.4384416359513336e-16 4.409352506614751e-18 0.0064547860976427625 -2.7654958553260267e-07 4.4384416359513336e-16 -2.7654958553260267e-07 -0.00019048636913269418" pbc="T T F"
Al      -0.37757172      -1.19070858       8.51606473        4      -0.00932590      -0.00527703      -0.01893758
Al       2.48941713      -1.19070858       8.51606473        4       0.00932590      -0.00527703      -0.01893758
Al       5.35312905      -1.19141917       8.51896688        4      -0.00993291      -0.00232234      -0.01915891
Al       8.21384621      -1.19141917       8.51896688        4       0.00993291      -0.00232234      -0.01915891
Al       1.05592270       1.29114753       8.51678309        4       0.00000000       0.01099600      -0.01934931
Al       3.92117441       1.28990729       8.51814115        4       0.00197151       0.00120746      -0.04128770
Al       6.78348763       1.28889752       8.52523790        4       0.00000000       0.01034411      -0.01618657
Al       9.64580085       1.28990729       8.51814115        4      -0.00197151       0.00120746      -0.04128770
Al      -0.37648970       3.77059207       8.51895622        4       0.00682284      -0.00716484      -0.01928781
Al       2.48833510       3.77059207       8.51895622        4      -0.00682284      -0.00716484      -0.01928781
Al       5.35176201       3.76739663       8.52440498        4       0.00960055      -0.00554841      -0.01670969
Al       8.21521325       3.76739663       8.52440498        4      -0.00960055      -0.00554841      -0.01670969
Al       1.05592270       6.25147553       8.51196768        4      -0.00000000       0.00258255      -0.05005124
Al       3.92066397       6.24785840       8.51818049        4      -0.00042144       0.00978005      -0.01924190
Al       6.78348763       6.24484727       8.51320368        4      -0.00000000      -0.00526865      -0.04724172
Al       9.64631129       6.24785840       8.51818049        4       0.00042144       0.00978005      -0.01924190
Al       1.05592270      -0.36343147      10.81676850        3       0.00000000      -0.00175781       0.06572894
Al       3.92263108      -0.36489646      10.81898916        3       0.00032236      -0.06155070       0.05608906
Al       6.78348763      -0.36446554      10.83029931        3       0.00000000       0.00011788       0.06004661
Al       9.64434418      -0.36489646      10.81898916        3      -0.00032236      -0.06155070       0.05608906
Al      -0.37655997       2.11923742      10.81936252        3       0.05090651       0.03226952       0.05571599
Al       2.48840538       2.11923742      10.81936252        3      -0.05090651       0.03226952       0.05571599
Al       5.35244864       2.11525949      10.82946121        3       0.04325329       0.02423417       0.04442213
Al       8.21452662       2.11525949      10.82946121        3      -0.04325329       0.02423417       0.04442213
Al       1.05592270       4.60372832      10.81823338        3      -0.00000000      -0.07066366       0.07378746
Al       3.91910657       4.59519199      10.82960582        3      -0.00206710       0.00106794       0.06130720
Al       6.78348763       4.59091585      10.82727298        3      -0.00000000      -0.05177551       0.04234471
Al       9.64786869       4.59519199      10.82960582        3       0.00206710       0.00106794       0.06130720
Al      -0.37854906       7.07572439      10.81793909        3      -0.05747241       0.03353187       0.05948946
Al       2.49039446       7.07572439      10.81793909        3       0.05747241       0.03353187       0.05948946
Al       5.35641600       7.07145397      10.81679194        3      -0.06131041       0.03237921       0.06963567
Al       8.21055926       7.07145397      10.81679194        3       0.06131041       0.03237921       0.06963567
Al      -0.37988458       0.46543754      13.12430724        2       0.02491032      -0.01642124      -0.05514689
Al       2.49172999       0.46543754      13.12430724        2      -0.02491032      -0.01642124      -0.05514689
Al       5.35153238       0.46313811      13.14233730        2       0.03021459      -0.00936089      -0.04266227
Al       8.21544288       0.46313811      13.14233730        2      -0.03021459      -0.00936089      -0.04266227
Al       1.05592270       2.97570189      13.10117440        2      -0.00000000       0.04373746      -0.15519642
Al       3.92100532       2.94147739      13.14199020        2       0.00313252       0.03130059      -0.04290556
Al       6.78348763       2.93862584      13.13499314        2      -0.00000000      -0.00641388      -0.07067076
Al       9.64596994       2.94147739      13.14199020        2      -0.00313252       0.03130059      -0.04290556
Al      -0.37782756       5.42648877      13.14313895        2      -0.02018488      -0.02564429      -0.05080415
Al       2.48967297       5.42648877      13.14313895        2       0.02018488      -0.02564429      -0.05080415
Al       5.35266710       5.41626466      13.13612147        2      -0.02980696      -0.00827612      -0.04312923
Al       8.21430816       5.41626466      13.13612147        2       0.02980696      -0.00827612      -0.04312923
Al       1.05592270       7.90003490      13.12310579        2       0.00000000       0.03219718      -0.05740298
Al       3.94705661       7.88773915      13.10083051        2       0.03298291      -0.01912068      -0.15594155
Al       6.78348763       7.90292997      13.13851483        2       0.00000000       0.02554588      -0.04875263
Al       9.61991865       7.88773915      13.10083051        2      -0.03298291      -0.01912068      -0.15594155
Al      -0.43691319      -1.22562626      15.36564145        1       0.14564846       0.08492426       0.13432475
Al       2.54875860      -1.22562626      15.36564145        1      -0.14564846       0.08492426       0.13432475
Al       5.35431019      -1.18733989      15.46082562        1       0.05165307       0.01641940       0.03504240
Al       8.21266507      -1.18733989      15.46082562        1      -0.05165307       0.01641940       0.03504240
Al       1.05592270       1.35921011      15.36594593        1      -0.00000000      -0.16858187       0.13524730
Al       3.90240266       1.27944285      15.48470333        1      -0.00138858      -0.00087763       0.03276824
Al       6.78348763       1.29102787      15.44013416        1      -0.00000000      -0.02175847       0.01671007
Al       9.66457260       1.27944285      15.48470333        1       0.00138858      -0.00087763       0.03276824
Al      -0.37873340       3.77102223      15.45919590        1      -0.04030274       0.03630280       0.03359221
Al       2.49057880       3.77102223      15.45919590        1       0.04030274       0.03630280       0.03359221
Al       5.35153271       3.76551653      15.44079777        1      -0.01989539       0.01096815       0.01922821
Al       8.21544255       3.76551653      15.44079777        1       0.01989539       0.01096815       0.01922821
Al       1.05592270       6.27091204      15.48335823        1       0.00000000       0.00101022       0.03558259
Al       3.91999591       6.24524885      15.46043847        1       0.00950965      -0.05322411       0.03495354
Al       6.78348763       6.24608521      15.43806280        1       0.00000000       0.00026792       0.03001945
Al       9.64697935       6.24524885      15.46043847        1      -0.00950965      -0.05322411       0.03495354
Al       1.05592270      -0.36450425      17.27984653        0      -0.00000000       0.00022636      -0.21732674
